ITEM: TIMESTEP
4000
ITEM: NUMBER OF ATOMS
864
ITEM: BOX BOUNDS pp pp pp
0.0000000000000000e+00 1.0077577148295044e+01
0.0000000000000000e+00 1.0077577148295044e+01
0.0000000000000000e+00 1.0077577148295044e+01
ITEM: ATOMS id type x y z fx
4 1 2.35715 0.266635 0.833368 -4.89517
166 1 1.10131 0.425444 1.10263 -2.80905
8 1 3.19159 1.38711 0.748074 6.94328
173 1 3.02457 1.0072 1.97687 13.404
149 1 2.49574 0.11985 1.98298 17.2933
12 1 4.77643 9.77958 0.825189 -31.3325
16 1 6.80553 1.31971 0.483899 -6.84677
11 1 5.07157 9.65933 1.95596 24.9808
20 1 7.58595 0.142637 1.45615 -25.5089
15 1 7.4579 0.655316 -0.00962076 15.3732
14 1 7.83802 2.2513 0.680034 2.49975
43 1 9.49967 1.83626 0.449066 -2.13145
162 1 8.47275 0.490495 1.70545 37.9081
24 1 0.591973 0.525082 0.0314928 55.8736
28 1 2.21018 2.9111 0.193485 1.08331
190 1 1.96438 2.33979 1.18998 26.9452
25 1 1.69785 1.32605 0.737193 26.9449
46 1 1.3515 2.24645 0.282894 -3.87126
26 1 2.9385 2.33351 9.35192 -11.3414
27 1 2.68652 2.06393 0.231992 -2.15871
170 1 2.93644 2.18281 1.61667 13.2872
31 1 3.94114 1.55516 1.62103 -30.3981
30 1 4.21563 2.49364 9.6516 2.35151
36 1 4.87696 2.58844 0.614985 12.0124
35 1 5.48843 1.68696 0.331986 -25.4341
40 1 6.63634 2.17529 1.43772 9.05742
34 1 5.67209 3.03907 9.85363 -2.1353
37 1 6.34863 2.0899 9.86669 4.48981
39 1 8.26068 3.27493 0.960631 -11.6989
38 1 6.82569 3.04378 9.90532 -26.0338
44 1 9.85876 3.00563 1.76088 -5.12296
42 1 8.8046 2.65936 0.0295949 1.02935
41 1 9.02981 2.46919 1.03504 -23.8417
45 1 0.430409 1.45664 0.432592 2.59912
48 1 0.225477 2.44454 0.64897 5.23619
47 1 1.07421 1.902 1.21432 -50.1832
189 1 9.63183 1.77543 1.4755 14.875
71 1 0.970263 3.44936 0.52388 -62.0422
32 1 3.63342 2.42353 0.797811 0.0555462
51 1 1.70797 3.31283 1.07883 66.9041
50 1 3.24916 4.33103 0.0820423 0.59686
53 1 3.40524 3.10565 10.0613 -5.093
54 1 4.39798 3.45027 0.286812 -4.02448
55 1 3.7904 3.86286 1.95761 11.0027
57 1 5.25342 3.8008 0.853174 29.457
59 1 5.97764 3.58816 1.55749 -15.0237
58 1 5.22594 4.11037 9.85484 10.5461
64 1 6.26278 3.90007 0.459103 -20.8267
61 1 5.97987 2.81326 0.82057 -12.5793
63 1 7.00224 3.0163 0.865546 14.6293
62 1 7.34198 4.4183 9.94013 -12.4558
68 1 9.19509 4.55901 0.791961 17.4085
65 1 8.65064 3.84453 0.212077 11.1268
67 1 9.72147 3.57383 0.492846 -0.643806
72 1 0.363804 4.93229 0.977962 -1.81237
52 1 1.93744 4.33886 0.631759 15.3831
56 1 3.08173 3.46486 0.872078 -3.17672
75 1 2.89858 4.86761 1.18481 -25.2157
77 1 3.74487 5.12489 0.646981 -0.130978
60 1 4.73065 4.29863 1.49228 -39.4769
79 1 3.69793 6.06487 1.19439 -0.308774
83 1 5.63784 4.7641 1.47251 4.31344
85 1 6.43098 5.20323 0.126049 -14.5489
87 1 7.11762 4.21336 0.85342 24.4673
86 1 7.55448 5.48243 0.104752 -21.0011
210 1 9.50848 3.89926 2.33497 7.08891
91 1 9.75396 4.58693 9.88016 0.073798
95 1 0.91759 5.7586 1.09388 1.24877
237 1 9.85812 5.63213 1.60784 31.2685
76 1 1.46132 6.42564 0.557449 29.9434
80 1 2.85236 6.25997 0.534642 35.1626
99 1 2.27311 7.16697 0.958586 -5.19426
103 1 4.39461 6.8012 0.782412 -16.4999
84 1 4.77046 5.36194 1.25544 -4.78321
78 1 5.06034 6.33165 10.0098 -14.3379
107 1 5.24595 7.05655 1.23676 27.6388
82 1 5.65266 5.80908 0.567617 24.1901
88 1 7.74035 5.54504 1.37686 49.6484
111 1 7.38086 6.93426 0.955014 17.484
109 1 6.90697 6.11192 0.650602 -8.23178
92 1 8.8537 5.545 0.817559 24.263
115 1 9.19864 6.71512 0.344333 20.0499
116 1 8.66481 7.54072 0.161896 -13.0142
96 1 9.90638 5.6799 0.551459 -1.79655
119 1 9.80793 7.58568 0.468591 1.77973
100 1 0.898643 7.45815 0.739691 16.4
265 1 1.08389 8.85691 1.2933 -3.492
123 1 2.41372 8.18554 0.49433 13.2987
104 1 3.42203 7.21096 0.968915 3.89246
242 1 1.73627 7.75123 1.69026 -1.19555
269 1 4.09614 8.07982 1.53906 -34.2469
105 1 5.09788 7.46334 10.0473 -6.61299
102 1 3.9804 7.13296 9.76765 39.871
127 1 4.64353 7.83551 0.779351 9.2517
108 1 5.00029 7.69917 1.96418 15.6325
129 1 5.23901 8.63251 0.354185 -13.3055
112 1 5.7602 7.8347 0.703974 10.3106
133 1 6.59939 8.2586 0.108521 5.63609
139 1 8.07969 8.3059 1.40964 -3.67972
141 1 8.84847 8.49789 0.529935 23.4287
258 1 8.77949 7.53529 1.26974 23.4122
120 1 0.396006 8.63721 0.37947 7.92386
143 1 1.47142 8.58223 0.375186 -2.5246
124 1 2.39918 9.28554 0.200495 -48.3793
23 1 1.2653 9.71016 0.598059 8.45862
145 1 1.66873 9.79651 1.65428 -14.4218
3 1 3.19369 9.54748 0.78304 5.80219
128 1 3.41565 7.90747 0.111342 -3.70933
266 1 2.21988 8.76587 1.4771 -14.9251
7 1 3.92444 9.76589 0.0759164 10.3336
132 1 4.19105 8.85438 0.870767 -0.105776
131 1 6.56359 9.16179 1.45084 -34.1163
130 1 5.8259 9.20724 9.39589 9.18102
135 1 6.86016 7.9792 1.15409 19.2693
278 1 7.29327 8.97239 0.818801 -0.581232
134 1 6.70316 9.73152 0.0235708 18.701
140 1 8.54449 9.56792 1.53652 -15.3595
19 1 9.81224 0.369732 0.400365 -67.0534
17 1 8.53473 0.18914 0.629027 -40.1306
144 1 0.0795693 9.28537 1.21395 -11.3715
165 1 0.106707 0.651801 1.30703 -27.4066
148 1 1.19656 1.20316 2.95097 -8.0813
146 1 1.37302 0.337118 2.32724 -15.1356
152 1 3.4411 0.133526 2.46522 -15.0459
153 1 4.35027 0.387218 2.15258 30.3442
150 1 3.82644 0.643824 1.01073 16.3766
177 1 4.81846 1.18582 1.163 -0.0577792
154 1 5.48117 0.36231 1.29035 -7.2682
179 1 5.10644 1.29376 2.20353 -17.6639
157 1 6.43956 0.0311032 1.03347 26.9463
160 1 7.15905 0.806138 2.47424 -28.5885
158 1 7.90209 1.06451 1.11272 -40.8626
164 1 8.83437 0.905374 3.21993 -42.3482
187 1 9.53247 1.30733 2.69783 44.3657
161 1 8.14159 9.95634 2.4981 -14.2269
168 1 0.379158 1.27093 1.93473 41.3342
169 1 2.07988 1.58751 1.87064 -7.87935
172 1 1.1841 2.30061 2.45675 -17.8138
171 1 2.0947 1.85167 2.90238 -10.7988
176 1 3.86743 2.87445 1.74696 -3.50332
174 1 3.22306 1.74186 2.77752 -39.0991
314 1 2.79833 2.59123 2.51054 -12.2308
156 1 4.09315 1.36273 2.6818 46.0232
180 1 4.73674 2.14179 1.57474 22.0216
178 1 5.73494 1.69462 1.2859 4.56414
181 1 6.78943 1.1168 1.4789 -3.03105
182 1 7.55165 1.69041 1.90687 -4.85533
185 1 8.59487 1.51926 1.60544 26.6187
188 1 8.29258 1.7781 2.63976 6.85805
186 1 0.280077 3.93008 1.27056 -10.321
192 1 8.84859 2.66434 2.18497 -0.0727915
191 1 0.133854 2.13693 2.34463 -9.62285
215 1 0.551434 3.21919 2.52726 -4.04651
193 1 1.84547 2.89938 2.06807 15.1088
337 1 1.44024 3.60924 2.90167 15.7632
195 1 2.55552 3.42412 2.99009 -8.70249
197 1 2.80571 3.25794 1.8464 4.42958
341 1 3.66324 3.17435 2.72376 -6.82308
199 1 4.1716 4.45153 2.83264 -8.89124
225 1 4.65707 5.18528 2.30235 6.40857
201 1 4.85717 3.23792 1.59798 0.597382
204 1 4.69225 3.45696 2.95859 0.504118
205 1 6.73493 2.83363 2.188 1.86072
208 1 6.55807 4.33989 1.72196 10.3371
206 1 9.10773 3.70037 1.39161 18.8353
209 1 7.76797 2.76368 1.70441 1.13842
211 1 8.3844 3.92786 2.04075 -12.7388
212 1 7.34172 3.68214 1.81935 10.5166
213 1 0.799245 2.86427 1.45972 3.08094
196 1 1.27787 4.53945 2.76332 -1.75488
217 1 1.94601 5.27152 1.50628 -45.3431
214 1 1.28394 4.171 1.46214 -31.7797
194 1 2.09382 4.27046 1.97277 35.0493
200 1 3.04389 4.28897 2.52432 8.061
219 1 2.88273 5.57088 1.89242 23.5886
221 1 2.30537 6.10635 1.29205 -16.1955
198 1 3.76129 4.89742 1.71736 17.0564
223 1 3.46354 5.35757 2.97223 -26.2272
202 1 5.33694 4.02295 2.32772 -1.52515
227 1 5.35488 6.07075 2.65388 -16.9654
346 1 6.66602 5.12491 2.35942 2.8153
229 1 6.82705 5.25734 1.21614 -39.5883
231 1 7.71303 4.7295 1.86309 -10.991
233 1 9.31849 4.7353 1.81585 8.70353
235 1 9.99524 5.13778 2.62913 -16.4385
216 1 0.571273 4.65007 2.02638 -11.9257
239 1 0.667426 5.24 3.39769 2.62676
220 1 0.970642 5.59963 2.28159 -21.0804
241 1 0.666269 7.65242 1.98917 2.07445
224 1 3.2413 6.56424 2.76755 -3.07804
218 1 1.41277 6.46784 1.66876 -5.51798
243 1 2.22367 7.09668 2.86015 15.1616
245 1 2.84877 6.8456 1.75202 10.0741
222 1 4.69866 6.28132 1.79594 2.45422
247 1 3.41787 7.58156 2.49181 -100.587
228 1 4.12754 6.05386 2.7877 36.6398
226 1 5.89316 5.67939 1.7803 0.0845416
249 1 5.78223 6.99387 2.4727 11.8823
251 1 5.60589 7.14624 3.50896 17.9682
253 1 7.02711 6.23386 1.65277 -14.9431
232 1 7.62124 5.59167 2.44658 -4.79665
230 1 8.07656 4.69412 0.855512 5.514
255 1 6.38505 6.08973 2.59578 20.0458
236 1 9.05059 5.77539 2.1372 -26.2946
257 1 8.28623 6.22603 0.453613 -45.0293
234 1 8.89037 6.35488 1.38474 -4.62173
259 1 9.04032 6.84801 2.39575 10.8257
238 1 0.169098 6.53096 1.2135 0.969993
240 1 0.307662 6.32195 2.37758 -45.2978
261 1 9.60302 7.55696 1.97017 7.31842
263 1 1.12846 6.84233 2.57853 15.4999
244 1 0.80753 8.5562 2.73881 104.085
262 1 0.00800421 8.1315 1.30055 12.1073
267 1 2.27229 8.19189 2.56324 8.55623
248 1 2.97829 8.10247 1.40541 11.606
246 1 4.05642 7.10447 1.89898 -1.01913
252 1 4.73552 6.9424 2.644 -1.77969
273 1 5.34717 8.6881 1.39132 -3.00403
250 1 6.0782 7.68259 1.69351 -31.2365
256 1 6.97445 7.3851 3.21628 -13.5449
254 1 6.97212 7.47524 2.15576 29.6981
260 1 7.45751 6.60978 2.54306 6.43358
264 1 8.87051 7.83289 2.73034 -2.41726
287 1 0.00114619 8.47955 2.31767 -100.341
285 1 9.21832 8.71833 1.69598 -3.71066
268 1 2.10566 9.16958 2.46061 -10.4478
272 1 3.21402 8.80126 2.1141 3.67021
270 1 3.94847 9.72227 1.59148 -10.332
151 1 4.32057 8.96291 2.18055 -20.7439
271 1 4.23393 8.01153 2.53866 68.9576
276 1 4.78788 8.99397 3.5306 3.37747
136 1 6.8359 9.92719 2.10765 -10.7229
275 1 5.34223 8.7756 2.51382 4.40581
274 1 5.82822 9.82855 2.69978 0.670258
280 1 6.07194 0.645419 2.10391 -0.316811
277 1 6.56843 9.01002 2.67901 3.11328
281 1 7.46751 9.07906 2.00186 12.8007
159 1 6.92646 9.8839 3.17104 0.171575
163 1 9.36541 0.435843 2.30151 -9.40995
282 1 9.39105 10.0356 1.21824 3.65334
288 1 9.57998 9.4937 2.36126 -10.2697
167 1 0.135418 9.58004 0.245664 41.8223
286 1 0.51021 9.3722 2.12398 26.3975
292 1 1.66798 0.880381 3.81682 40.2334
310 1 0.297499 0.180443 2.60197 8.62089
313 1 1.32155 1.76493 3.89949 -28.0021
147 1 2.23042 0.96056 2.67845 22.8809
290 1 3.02087 0.083486 4.1135 -4.65112
293 1 4.53382 9.64532 2.76594 -6.06539
155 1 4.99425 0.419732 3.13408 2.66456
294 1 5.03464 0.71221 4.39322 8.65143
297 1 5.16958 9.88075 3.96838 -17.3415
321 1 4.74186 1.41735 3.51918 -49.1041
298 1 5.61005 1.47477 3.13002 53.9461
299 1 5.88514 0.545548 4.98194 -1.118
302 1 7.69171 0.620892 3.23362 37.2756
304 1 6.6786 9.83076 5.3048 -41.6345
306 1 8.73888 9.99118 3.40587 -7.09331
309 1 9.77887 0.0727739 3.40544 -1.29064
333 1 0.372021 1.14145 3.69698 27.7201
335 1 1.59278 2.48466 4.63992 -36.0832
359 1 1.70309 2.73606 3.40644 -21.4223
175 1 3.77438 0.663521 3.46405 -11.1592
316 1 2.8405 1.39595 3.73932 -5.08667
317 1 3.9731 1.06473 4.39909 29.8122
320 1 3.79306 2.05209 3.64297 -0.849964
318 1 4.42289 2.41333 2.60212 4.20437
184 1 6.67924 1.697 2.74217 -0.389382
322 1 5.76562 2.04516 2.27511 17.4738
323 1 6.49466 2.10142 3.66592 -16.8825
328 1 7.01808 3.1313 3.41517 -13.6924
207 1 7.81322 2.8475 2.74351 17.7261
325 1 6.67674 0.96857 3.48612 51.7406
183 1 7.44388 2.19584 3.33307 -34.6616
329 1 9.51563 1.43875 3.81416 -18.5247
330 1 9.54112 2.1534 3.21825 14.8225
332 1 8.88136 2.24485 4.24479 -39.162
334 1 0.59314 2.22814 3.34824 -13.9743
331 1 9.49464 2.0084 5.04264 44.2419
340 1 1.72123 4.3323 4.00073 5.97857
339 1 2.98692 3.51875 4.03279 -11.3388
344 1 3.98408 4.08425 3.84007 19.8559
342 1 5.30016 3.56833 4.20219 -15.587
343 1 4.76803 2.56038 3.65547 -43.8399
203 1 5.67109 3.00115 2.52225 -6.93913
345 1 5.70884 2.67097 3.48613 19.9797
347 1 5.96916 3.81186 3.13586 -39.037
349 1 6.76651 3.98263 2.61127 36.7283
351 1 8.19614 3.64858 4.74965 -41.3315
353 1 7.91529 2.7096 3.99065 32.6826
356 1 9.2027 3.35812 4.19266 -1.44643
354 1 9.00646 4.05255 3.48537 40.4812
357 1 8.67323 2.64328 3.32999 -1.29002
358 1 0.202866 4.17645 3.06015 -0.303064
360 1 0.627718 3.31704 3.64229 47.2691
361 1 2.28097 4.97994 2.66433 -0.000585559
383 1 1.96835 5.30139 3.62233 -10.7237
338 1 3.58293 4.93521 4.09002 -9.63725
363 1 2.59579 6.04572 3.28915 -46.4342
365 1 4.55211 5.06841 3.63162 -3.28673
348 1 5.43235 4.91841 3.00039 -0.0954166
369 1 3.51275 6.09436 3.6563 25.419
371 1 6.40993 4.68673 3.33678 14.3198
350 1 8.12089 3.75041 3.23399 -37.6125
352 1 7.23904 4.12415 3.79656 7.15818
373 1 7.45772 4.86168 3.18202 -24.9756
375 1 8.17646 4.69299 3.8513 19.7794
377 1 8.72088 4.74862 2.61972 14.7544
378 1 9.47315 5.37713 4.95502 -18.5518
379 1 9.88254 4.28083 4.72536 3.93979
381 1 9.75525 4.98404 3.68002 -10.4679
362 1 1.79126 6.02469 2.53177 75.9216
385 1 1.61127 7.27306 3.63603 -23.7197
364 1 1.82839 6.65285 4.48321 5.05005
382 1 1.15299 6.12774 3.27817 -0.774313
407 1 0.77154 6.32439 4.62906 4.09848
387 1 2.65887 7.10089 4.91793 -13.7527
389 1 2.82891 6.9091 3.78168 -18.6425
366 1 3.77628 7.08992 3.44711 11.8763
391 1 4.51402 7.83062 4.69198 -67.7788
372 1 4.80829 5.50897 5.16035 11.7225
393 1 5.47147 6.18305 4.40087 -31.3831
370 1 6.2385 5.63846 3.62834 -7.95023
397 1 7.10378 6.2947 3.4367 -42.1729
399 1 7.60952 6.84646 4.00029 14.7388
374 1 8.32197 5.40767 3.16666 6.50464
398 1 8.25079 6.42639 3.31072 20.7921
401 1 9.33552 6.00697 3.13044 -5.0555
405 1 9.89908 7.12722 2.97424 -12.2494
384 1 0.162639 6.24224 3.60338 -0.670213
388 1 1.39453 7.56154 4.57554 13.1525
406 1 0.646619 7.67155 3.10236 14.3498
386 1 1.67056 8.617 3.38938 1.73202
411 1 2.27479 7.92755 4.04687 9.06927
392 1 3.33862 7.69972 4.33768 7.91546
413 1 3.0468 8.18431 3.37665 0.295685
390 1 4.23433 7.94349 3.58127 19.6444
415 1 4.40024 8.98546 4.41541 -19.0535
396 1 5.50471 8.22441 4.03738 -0.285635
417 1 5.28482 7.86436 2.97528 -22.2603
394 1 6.3507 8.03609 2.68089 -29.6025
419 1 5.97898 9.06641 4.54266 -4.49633
421 1 7.34179 7.82233 4.2584 -17.8145
425 1 7.85281 8.4125 3.70543 33.6212
283 1 9.58039 7.80028 3.7142 -4.59411
402 1 7.97515 7.35172 3.21428 21.1979
427 1 9.82815 8.72683 4.55221 -1.77151
429 1 0.613784 8.37942 3.93194 7.26119
408 1 0.398375 7.38615 4.09703 -2.53577
311 1 0.991261 0.284136 3.38213 -34.7687
409 1 1.20827 9.53513 2.99263 12.6918
289 1 2.113 0.146549 3.12685 -4.40011
430 1 0.533527 9.41939 4.0204 -2.78754
410 1 2.91147 9.4445 3.06977 5.63317
295 1 4.11084 0.0293176 4.15044 12.9294
416 1 3.23731 9.00564 4.07151 1.01068
414 1 3.83287 8.84089 3.15678 -4.6666
418 1 5.75358 9.21641 3.46221 35.6411
420 1 6.00022 0.230435 3.58541 -2.23234
279 1 8.20314 7.14736 1.97516 -43.7589
301 1 6.68279 9.95074 4.29817 7.70468
305 1 7.76828 9.46043 3.72517 -15.3331
284 1 8.51344 9.08967 2.88579 1.54359
428 1 8.53009 9.35414 4.37888 -63.1597
426 1 9.35555 8.93946 3.57505 -1.81954
315 1 3.07883 1.09777 4.71763 -56.3202
434 1 2.02359 1.64596 4.6036 68.764
461 1 2.0623 0.624146 4.80764 1.28901
454 1 0.790162 0.316676 5.60218 -16.0286
296 1 3.49815 0.162726 5.09217 -2.85412
319 1 4.62828 1.19322 5.10975 0.7698
438 1 4.06932 9.90541 6.23298 -2.87573
300 1 5.95276 1.11992 4.09544 -56.2888
442 1 6.40154 1.28304 5.48981 38.7453
443 1 5.74685 0.897348 6.21877 -1.71932
446 1 7.2308 0.600475 5.32421 45.7407
445 1 6.58804 0.10409 6.2169 -7.54404
303 1 7.89607 0.355578 4.19115 5.18016
308 1 7.8998 1.55232 3.91522 25.8928
312 1 0.819337 0.956251 4.80416 12.2518
450 1 8.72369 1.19067 4.75881 -18.6361
477 1 0.436718 1.9224 4.70343 8.28942
457 1 2.66058 2.51603 3.62782 17.4214
478 1 1.85351 2.60758 5.60054 10.151
460 1 1.44101 1.46143 5.37479 13.5514
458 1 3.15891 2.68986 5.87434 10.7414
459 1 2.97927 2.61411 4.59396 -3.60872
324 1 4.81067 2.60172 4.65233 6.76793
462 1 3.88461 2.1813 4.79068 0.455541
463 1 3.60891 1.44935 5.6183 17.9452
465 1 5.21317 1.8667 5.7801 -4.58578
466 1 5.88063 1.86402 4.95821 -32.4348
326 1 7.15958 2.10327 4.39992 -9.33511
469 1 7.64 1.72602 5.19529 3.70502
327 1 6.80132 1.00477 4.58733 5.7945
470 1 7.86533 3.51196 5.83638 6.76709
473 1 8.56989 2.2244 5.3017 -39.9376
497 1 9.44715 3.01576 5.15398 -0.550927
336 1 9.82053 2.48633 4.14379 25.3973
474 1 0.356179 2.66 5.52906 -36.9474
481 1 2.68047 3.45516 5.07917 -10.1907
503 1 1.01515 3.31655 5.72497 33.5915
483 1 2.90004 4.4057 5.62341 -6.90034
485 1 3.9554 3.16168 4.12464 7.07171
488 1 3.67589 3.63503 5.93216 13.3723
486 1 4.49355 3.44432 5.03939 -30.5
489 1 6.00813 2.7206 4.48767 32.8892
491 1 6.67336 3.55243 5.39422 -0.713449
472 1 7.09107 2.67452 5.65235 31.5171
493 1 7.16879 3.20177 4.43994 -15.9183
494 1 8.07093 4.59776 5.50067 -4.46601
498 1 0.289514 3.18945 4.57106 9.76231
500 1 8.93209 3.86997 5.31956 33.9861
355 1 9.82963 3.22085 3.22974 -44.5015
501 1 1.49722 3.55305 4.53493 -13.3674
484 1 1.74795 4.42936 5.2503 -2.22139
505 1 2.53738 4.75867 4.54328 10.1127
482 1 2.66127 5.83038 4.33898 8.16418
507 1 3.36344 5.37521 5.43755 15.3359
367 1 3.45063 4.18079 4.76924 7.69287
513 1 5.52519 4.65199 4.00569 3.2258
490 1 6.5594 4.11096 4.53629 -16.6855
517 1 6.93918 5.15641 4.95603 12.7042
514 1 6.76365 6.13717 4.43936 0.85884
376 1 7.59358 5.47655 3.96756 -19.7517
518 1 7.74458 6.16574 4.76225 -14.1253
521 1 8.90833 4.45677 4.49137 2.84702
525 1 0.343365 5.36612 4.4954 5.26519
502 1 0.612967 4.25405 3.98972 6.63156
506 1 2.86538 4.51013 3.49985 -13.9262
529 1 1.77226 6.66796 5.55531 -4.25446
526 1 1.74044 5.42702 4.75338 -3.75783
368 1 4.77306 6.07586 3.63319 -0.7341
509 1 4.10992 5.81198 4.48079 32.7667
531 1 2.55385 5.96611 5.36209 -3.87708
510 1 4.81707 6.61643 4.93366 -56.9263
533 1 3.57214 7.24214 5.32828 16.1557
537 1 4.9772 5.99559 6.08599 -6.34804
395 1 6.5491 7.17498 4.13856 -1.6303
541 1 5.806 6.38474 5.28445 -3.19024
544 1 5.97484 7.28655 5.56166 4.43002
380 1 8.79281 5.91296 4.19289 8.51458
403 1 9.2414 6.81745 3.78416 -4.3678
545 1 8.11522 6.41902 5.99176 -2.57969
524 1 8.71797 6.1079 6.91741 -16.0706
522 1 8.28927 5.35219 4.85636 10.7113
547 1 8.68597 6.42331 5.09115 15.9757
549 1 9.8035 6.63947 4.85544 14.4201
431 1 0.153499 9.23158 5.29587 14.5527
553 1 1.8705 7.79283 5.40884 12.3118
550 1 0.629966 7.39083 5.12648 -19.3836
530 1 3.6683 6.62988 4.52141 -36.5371
557 1 3.78003 8.30984 5.16646 -14.284
534 1 4.61442 7.37709 5.82318 -5.08615
538 1 5.6036 7.19291 4.54331 -13.2807
565 1 6.26974 7.94498 4.84639 -1.89986
400 1 6.72451 8.57974 3.71602 -3.2292
423 1 6.94475 8.71144 4.80431 -6.11677
542 1 7.62974 7.10167 5.12001 -30.0378
404 1 8.43451 7.36925 4.33854 -6.89271
569 1 8.61336 8.35532 4.69921 -7.46801
546 1 9.3322 7.568 4.79031 7.84558
548 1 8.4283 7.53069 5.45827 41.1717
573 1 0.0216997 8.10738 5.39205 3.16153
552 1 9.5513 7.12293 5.65187 22.0982
412 1 1.65554 9.76661 3.955 15.6376
433 1 1.13132 9.92844 4.78484 -10.0184
291 1 2.39913 9.54112 4.76053 4.51773
554 1 1.71413 8.80516 4.44655 -6.17539
437 1 2.77492 9.75235 5.87995 -20.2389
558 1 3.53988 9.30587 5.47966 8.30223
559 1 4.59611 9.18248 5.4948 1.19634
424 1 6.51024 8.29589 5.82302 -27.5452
441 1 4.58012 0.145886 5.17492 -27.9843
561 1 5.15329 8.37705 5.03166 90.1879
562 1 5.71306 9.16924 5.63248 6.69262
422 1 7.59614 8.22744 2.70021 -4.23602
566 1 7.55421 9.45207 5.08244 40.2368
449 1 8.46386 9.89851 5.34356 -20.7078
307 1 9.23054 0.552722 4.20107 -6.12024
570 1 9.50914 0.133549 5.24617 -7.66144
432 1 9.44266 9.6049 4.30416 53.0842
453 1 0.144917 0.342111 4.3988 -2.72808
574 1 1.27001 9.23528 5.66924 -46.102
436 1 2.03769 0.60177 7.04578 4.0461
479 1 9.98179 1.01794 5.31362 -2.64463
440 1 2.65693 0.67987 5.71575 12.5677
578 1 2.77341 1.37786 6.98745 -6.69367
582 1 4.26053 0.969491 6.26057 10.0763
444 1 5.23132 10.0313 5.86946 19.5804
585 1 4.64811 9.15435 6.71136 39.9123
586 1 6.47357 0.558092 7.22583 -1.38984
448 1 7.11217 0.980793 6.28272 -9.12452
589 1 7.05729 9.52176 7.15097 0.930025
590 1 7.24709 1.5685 7.32626 5.45006
452 1 8.0625 0.586357 6.26628 10.2944
594 1 8.59505 0.947485 7.12845 -1.85434
593 1 7.77454 0.753038 7.73183 -29.5211
456 1 10.0206 0.413729 6.24177 -17.4545
598 1 0.957326 0.896872 6.45587 27.0463
597 1 9.7123 9.69105 7.05481 17.8957
602 1 2.73196 1.84273 5.86705 -32.1566
601 1 1.98901 1.28817 6.1879 -21.7794
622 1 0.639017 3.02914 6.78525 2.15223
605 1 3.59797 1.90202 6.49397 -23.6938
468 1 5.51838 2.79752 5.31357 -5.13326
464 1 4.55073 2.10661 6.68718 -12.5014
606 1 5.03762 3.27206 7.55057 -36.5364
609 1 5.51544 2.19449 7.05992 9.67775
467 1 6.31443 1.52662 6.92474 -17.2344
610 1 6.30532 2.2564 6.09679 -80.8857
635 1 6.1788 2.95705 7.04708 21.5199
613 1 7.05635 2.25713 6.66617 50.8076
614 1 7.89417 2.30272 7.51252 5.91038
471 1 8.06548 1.55614 6.3524 -18.1825
475 1 8.9914 1.4504 5.72734 11.7644
476 1 9.88328 2.44441 6.43062 -3.85523
618 1 8.86833 2.03468 6.7453 13.132
480 1 1.28356 2.07589 6.41749 9.76429
621 1 0.602416 1.56402 5.88296 -61.6026
625 1 1.98344 3.59908 6.07382 10.38
629 1 3.0508 3.34153 6.64706 -23.6675
487 1 4.15794 2.46885 5.80624 18.4
633 1 5.11766 2.82632 6.41516 22.3139
637 1 7.04977 3.38048 6.42731 -21.3749
495 1 8.04887 2.82849 6.63654 -21.5659
496 1 7.07137 4.61246 6.25309 26.3154
638 1 7.57906 4.33475 7.90664 21.8086
519 1 7.78413 3.90797 6.96141 23.1046
641 1 8.82682 3.165 6.12691 32.7687
642 1 9.01558 4.39239 6.37857 8.60537
499 1 10.0514 3.73165 5.58474 -23.9505
645 1 0.318427 4.21187 6.39928 5.21825
504 1 0.697718 4.29522 5.25124 27.9852
646 1 1.40605 4.48276 6.5068 2.8144
649 1 1.33677 5.74966 6.25574 6.24833
626 1 2.48805 4.27654 6.92193 -59.9399
653 1 2.85315 5.04973 6.35878 -5.17308
632 1 3.57987 4.37494 6.73767 -26.1592
511 1 4.10768 4.48855 5.60501 -7.77292
630 1 4.877 3.637 5.89924 9.32377
654 1 4.57556 5.26321 7.2768 -24.3795
492 1 5.63465 3.90897 5.05298 9.47906
516 1 4.74404 4.52129 4.83836 11.7334
634 1 6.09541 4.75109 6.1468 -25.1037
515 1 6.01028 5.50028 4.68184 35.3691
658 1 4.9292 4.97288 6.41625 12.8622
520 1 6.33446 5.65834 5.71331 16.8406
661 1 6.66439 5.48382 6.7682 -25.189
662 1 7.42652 5.50076 5.80405 9.97535
665 1 8.54662 5.26692 6.24383 23.0263
527 1 0.965057 5.29891 5.45309 -16.7456
523 1 9.69158 4.70665 5.62487 5.09343
669 1 9.89862 5.37754 6.41622 -0.35634
508 1 2.03768 5.20723 5.77971 2.23722
673 1 1.04689 6.91931 6.30597 -1.21831
650 1 2.48092 6.05894 6.47091 -4.41452
677 1 3.5407 7.27175 6.37927 1.79084
512 1 3.94005 6.26397 5.62544 11.1913
535 1 4.72437 6.77773 6.59868 -21.9178
681 1 3.84122 5.27185 6.39702 28.4671
539 1 5.88618 6.2708 6.42779 13.4008
685 1 6.39338 6.94906 7.04557 -0.0219589
543 1 6.9014 6.56605 5.63648 -4.95755
664 1 6.40981 6.07046 7.51013 -7.71061
689 1 7.99441 7.00835 6.81461 -8.89431
666 1 9.22238 6.59239 7.76649 -36.3981
551 1 0.133948 6.24994 5.8279 23.5902
528 1 9.2297 6.15228 6.06188 -9.18039
693 1 9.67858 6.67227 6.93121 35.7302
670 1 0.649342 6.17732 6.89499 -24.6368
532 1 1.94018 7.95512 6.4799 -23.0583
697 1 1.08677 8.75068 6.73017 28.4669
676 1 1.63078 7.81314 7.43813 7.47552
555 1 2.15248 8.88165 5.86856 33.6017
674 1 2.50946 7.24411 6.1084 -1.93822
701 1 3.35717 8.16086 7.11748 34.6748
536 1 2.93999 8.12315 6.16445 12.7957
678 1 3.86758 8.73015 6.18418 28.309
540 1 5.09593 8.4027 6.03493 0.380685
563 1 6.38585 7.93497 6.81944 -9.068
682 1 5.38109 7.58779 6.64902 4.9734
709 1 7.37482 7.85991 7.18909 -18.8478
567 1 7.74223 8.32985 5.36946 -0.493385
686 1 7.16172 7.63835 6.17148 27.2294
713 1 8.25562 7.91891 6.43783 -33.276
571 1 9.04492 9.13355 5.17709 46.8344
690 1 8.95204 7.19318 6.40177 -15.6993
692 1 9.04096 7.68478 7.56032 -7.27416
575 1 0.975036 8.40032 5.11347 2.67607
717 1 9.20179 8.26228 5.73199 -23.1509
694 1 0.877326 7.98391 6.10248 -5.0137
577 1 0.999703 1.01093 7.57807 39.7822
556 1 1.79105 10.0968 5.57684 15.0273
455 1 0.652751 9.96323 6.74787 16.6578
718 1 0.470633 9.30901 7.63433 -19.1161
435 1 1.93033 9.7892 6.55875 -4.17314
439 1 3.26296 0.501285 6.59771 3.09763
698 1 2.31161 8.82608 7.28241 -8.40217
560 1 3.09911 9.08667 6.65254 -53.1912
702 1 3.83046 9.33111 7.25304 19.4613
705 1 4.46785 8.22223 6.81337 -23.5645
564 1 6.12368 9.29737 6.54326 6.55577
706 1 6.69258 8.56378 7.59715 -28.8838
568 1 7.12887 8.66304 6.55984 3.68505
447 1 7.53949 9.46433 6.08983 6.02786
710 1 7.84681 8.68426 7.40674 12.3043
572 1 8.47545 8.78996 6.20829 -2.09951
451 1 8.98274 9.95778 6.2969 1.93707
714 1 9.03417 8.60821 7.04819 2.21801
716 1 8.74582 9.87098 7.3129 -26.7198
576 1 10.0638 8.74826 6.24204 6.49194
580 1 1.91643 0.884153 8.03394 8.97737
581 1 4.21874 0.154273 7.26438 13.8475
722 1 2.48652 1.42013 8.92896 0.450544
584 1 3.28976 0.988254 7.74115 0.425778
726 1 5.07684 0.537143 7.9096 -31.9298
588 1 5.46982 0.15591 7.00255 -13.2924
730 1 5.95009 1.17099 9.70593 -16.8934
587 1 5.79257 9.95574 7.87972 91.9427
592 1 6.54082 0.808616 8.10778 8.25145
733 1 6.89938 1.12987 9.42482 14.1621
591 1 7.52133 0.310627 8.70898 29.5565
738 1 8.8227 1.6139 9.1848 35.28
595 1 9.45216 0.580148 7.51948 35.226
737 1 8.66571 0.466759 8.12229 -19.3437
600 1 9.72775 1.34589 6.75714 1.48011
742 1 0.343059 0.284642 9.19802 -4.37309
741 1 9.62881 0.648708 8.53108 -46.4478
604 1 2.22614 2.69111 7.09942 1.74928
623 1 0.528473 1.76941 7.23836 -24.1637
603 1 1.82439 1.72105 7.31493 -19.5375
746 1 2.09963 2.55682 8.63832 7.41016
607 1 4.14655 1.36143 7.31441 -14.9214
608 1 3.29016 2.64304 7.36932 -37.7597
749 1 2.65591 1.91158 7.89537 -5.68427
750 1 4.14161 2.4141 7.75945 39.7848
753 1 5.23747 1.75054 8.05833 -23.6195
754 1 5.58281 4.21086 6.85598 -9.16641
611 1 5.09123 1.24502 7.01258 22.1732
757 1 6.55828 1.89026 8.84349 -13.5521
616 1 7.31187 3.16315 7.40528 -26.9772
615 1 6.36999 1.93456 7.84606 -6.04941
758 1 8.01192 2.12311 9.5846 -18.4487
617 1 8.34044 1.51773 8.12988 46.6763
596 1 8.14029 2.25531 8.637 1.59168
620 1 8.82008 2.66297 7.77428 5.0506
619 1 9.52564 1.50476 7.75786 -15.0239
624 1 9.8159 2.63584 7.40143 -1.38474
765 1 0.238526 1.25703 8.34419 68.7911
766 1 1.41261 3.09361 7.75876 0.541497
769 1 2.29657 3.5958 8.38552 -38.4823
628 1 1.62358 4.29875 7.67809 -4.31213
647 1 0.682814 3.94214 7.42692 -11.5811
627 1 2.95206 3.80161 7.54792 57.7213
773 1 3.35911 2.98589 8.45969 4.41708
770 1 2.52761 4.61821 8.06239 -7.78649
774 1 3.77544 4.70495 7.86973 -4.98565
631 1 4.09854 3.18349 6.90325 6.17615
612 1 4.46671 4.18521 7.14198 25.8217
636 1 5.94452 3.43345 6.12557 -0.470512
778 1 5.83112 3.83718 8.11579 -38.9791
781 1 5.79446 2.86944 7.99257 25.972
640 1 6.65087 4.06649 7.10957 -3.9623
639 1 7.32633 2.74456 8.95982 11.3832
782 1 6.75323 3.58993 8.24974 42.7811
644 1 8.88751 3.6782 7.80908 1.36294
785 1 7.93757 3.38439 8.19862 4.40677
643 1 9.60372 3.56562 7.02964 -1.49173
789 1 9.97432 3.40873 8.03777 5.75887
648 1 9.78308 4.52082 7.31079 32.982
793 1 1.9585 5.34901 8.3656 -15.1584
790 1 1.49393 4.55313 8.89369 -3.2437
651 1 1.93737 5.13239 7.15924 -11.7679
797 1 2.82326 5.43605 7.52344 25.8592
655 1 4.99565 4.55622 8.07068 0.551289
660 1 5.12357 5.86483 8.10781 11.9058
657 1 5.57095 5.56785 7.26286 9.70453
659 1 6.95302 5.00447 7.53916 -1.86556
663 1 7.74929 5.23749 6.79513 -45.5145
806 1 7.06204 5.76563 8.19296 -19.9314
810 1 7.74216 5.99965 7.49974 17.7986
667 1 8.48217 4.77864 7.29796 -1.41783
813 1 0.821783 5.25144 8.06311 5.76446
671 1 0.691366 5.10137 6.99608 3.24479
672 1 10.0111 5.67982 7.55083 -7.50299
652 1 1.8353 6.88833 6.99677 7.09654
817 1 2.21539 7.1397 8.07579 -7.04848
695 1 0.866511 7.07986 7.29894 -5.28851
814 1 1.48731 5.98926 7.50933 0.267551
656 1 3.67385 6.37334 6.60195 1.28621
675 1 2.70575 7.43986 7.07455 -12.2269
821 1 3.62871 6.28996 8.12357 -10.2434
794 1 2.71673 6.47178 7.44149 8.07543
679 1 3.97237 7.23653 7.36345 -5.2946
798 1 4.36456 6.33488 7.44812 12.4412
825 1 4.53955 6.33296 8.76667 -12.4522
683 1 5.36867 6.54329 7.34175 15.6605
826 1 5.92949 6.80033 8.18203 3.89245
829 1 6.71799 6.498 8.97875 -33.0264
687 1 8.30677 6.93111 8.29214 -5.95693
668 1 7.17828 6.32388 6.67714 10.9958
833 1 7.72444 6.12349 8.78785 42.1431
691 1 10.0009 7.26977 7.71976 13.2725
837 1 0.593151 6.30773 8.14792 -31.6666
841 1 1.93697 8.24215 8.37662 -51.1084
699 1 2.85043 8.19599 8.09716 44.2169
818 1 2.62667 7.50069 8.87539 13.829
680 1 3.21406 7.23061 8.04357 -11.4483
822 1 4.69385 7.43598 9.0476 -35.9914
684 1 4.75541 7.17837 8.06042 10.4325
849 1 4.75078 8.52483 8.72983 -15.41
707 1 5.87917 7.76916 7.70664 -11.149
688 1 7.18471 7.23037 8.09537 -4.42825
830 1 8.57442 6.95035 9.2468 -21.5029
857 1 8.59047 8.74274 8.16858 14.285
715 1 9.79566 8.48844 7.77822 3.10588
834 1 9.16641 7.84816 8.67058 -29.6914
696 1 9.89251 7.90175 6.73463 -26.0187
719 1 0.635973 8.09828 7.27442 -14.164
861 1 0.119817 7.84046 8.61816 -9.41487
838 1 1.00132 7.49889 8.27091 -16.1881
721 1 1.34195 9.74313 8.60171 -0.891918
700 1 1.30083 8.82569 7.8228 31.432
599 1 0.424347 0.258501 7.81362 -25.5859
579 1 1.90301 9.98365 7.72805 -23.2953
842 1 2.26624 9.17025 8.25507 10.215
725 1 4.08603 10.0179 8.41602 -8.03185
704 1 3.13379 9.89519 7.64309 -22.5187
703 1 4.82452 8.37039 7.78038 9.80984
583 1 5.46428 8.53418 6.97394 26.8481
846 1 4.9767 9.52992 8.13238 -42.2323
708 1 5.73421 8.68049 8.4696 13.5154
850 1 6.7228 0.151126 9.23919 -34.6643
853 1 7.34807 8.56078 8.31751 9.56692
711 1 8.02259 7.91538 7.95822 32.1526
712 1 7.8899 9.71932 7.8785 11.5935
858 1 8.62375 9.61571 8.7174 -9.30533
720 1 9.41471 9.82125 8.06799 14.8829
862 1 0.176349 9.50022 8.5718 9.51372
724 1 1.63309 0.703716 8.95987 -17.4706
22 1 1.61383 0.495452 10.0387 -2.56711
2 1 2.50551 0.955448 0.0572812 38.0826
728 1 3.38197 0.798293 8.78258 3.63958
6 1 3.64255 0.684435 10.0723 -0.318263
727 1 4.38143 0.417973 9.31662 -5.08674
751 1 4.85479 1.54166 9.44871 35.2109
9 1 4.97324 9.70229 9.77475 -3.41855
732 1 4.24321 1.45131 8.73412 -1.4044
10 1 4.80614 0.70882 0.122417 7.8298
731 1 5.93546 0.296952 0.0239005 -19.1612
13 1 5.7143 9.49112 0.723614 17.9894
734 1 7.33466 1.53006 8.33635 8.67438
736 1 7.99872 1.04581 9.18952 -5.65035
740 1 9.15311 0.939954 0.963704 4.83272
735 1 7.88587 9.99429 9.56709 -0.505778
18 1 8.71982 0.362506 9.83638 45.9758
744 1 9.70408 0.85687 9.55921 -45.9838
743 1 1.11459 9.83776 9.55642 -25.7947
745 1 1.39621 1.75484 8.51576 -3.64054
748 1 1.31151 2.52924 9.36366 -2.61178
767 1 0.534152 1.2712 9.48329 30.9542
29 1 3.53655 1.57617 9.76182 -2.47909
747 1 1.76284 1.43669 9.67647 -24.481
752 1 3.38945 1.8941 8.59712 -1.70043
33 1 4.34598 1.72736 0.407815 -7.91774
755 1 5.52302 2.23844 9.06182 11.1146
760 1 6.35038 2.89311 8.94702 -31.2224
759 1 7.6846 3.5098 10.0509 33.9442
761 1 8.51908 1.37994 0.181755 -3.76168
762 1 9.49529 2.61229 8.70526 -2.36233
764 1 8.67171 3.22678 9.25214 -9.86407
763 1 9.90578 2.06346 9.57608 -5.02855
768 1 0.413609 2.31064 8.14582 4.92972
49 1 1.81262 3.72336 9.8971 -17.9998